TITLE = "PARTICLE HISTORY"
VARIABLES = "Residence Time","X","Y","Z","U","V","W","Diameter","id"
ZONE T = "Particles",STRANDID = 50,SOLUTIONTIME = 0.2,DT = (DOUBLE DOUBLE DOUBLE DOUBLE DOUBLE DOUBLE DOUBLE DOUBLE DOUBLE)
1.00000e-01	 2.37158e-02	 3.62875e+00	 1.69634e+00	 1.01067e-02	-3.74513e-01	-2.03377e-02	 1.20000e-05	 1.00000e+00 
1.00000e-01	 2.35993e-02	 3.62917e+00	 1.69637e+00	 8.97998e-03	-3.75824e-01	-2.17623e-02	 2.30000e-05	 2.00000e+00 
1.00000e-01	 2.24377e-02	 3.62845e+00	 1.69681e+00	 1.08971e-02	-3.81134e-01	-2.11767e-02	 1.00000e-06	 1.00000e+01 
1.00000e-01	 2.23748e-02	 3.62859e+00	 1.69686e+00	 1.03757e-02	-3.80968e-01	-2.20122e-02	 1.20000e-05	 1.10000e+01 
1.00000e-01	 2.22925e-02	 3.62897e+00	 1.69686e+00	 9.53921e-03	-3.80952e-01	-2.31933e-02	 2.30000e-05	 1.20000e+01 
1.00000e-01	-4.57712e-03	 3.61969e+00	 1.68269e+00	-6.72541e-03	-4.12161e-01	-1.67357e-02	 1.00000e-06	 2.00000e+01 
1.00000e-01	-4.55858e-03	 3.61984e+00	 1.68277e+00	-6.79026e-03	-4.12976e-01	-1.75418e-02	 1.20000e-05	 2.10000e+01 
1.00000e-01	-4.52697e-03	 3.62027e+00	 1.68280e+00	-6.61005e-03	-4.15127e-01	-1.98335e-02	 2.30000e-05	 2.20000e+01 
1.00000e-01	 1.33670e-02	 3.63331e+00	 1.70300e+00	 6.48493e-04	-3.88796e-01	-3.69649e-02	 1.00000e-06	 3.00000e+01 
1.00000e-01	 1.33515e-02	 3.63354e+00	 1.70312e+00	 9.55452e-04	-3.86864e-01	-3.87698e-02	 1.20000e-05	 3.10000e+01 
1.00000e-01	 1.32972e-02	 3.63393e+00	 1.70312e+00	 2.01738e-04	-3.88188e-01	-4.03505e-02	 2.30000e-05	 3.20000e+01 
1.00000e-01	 1.19513e-02	 3.63884e+00	 1.70597e+00	-2.47729e-03	-3.77797e-01	-5.04202e-02	 1.00000e-06	 4.00000e+01 
1.00000e-01	 1.19332e-02	 3.63895e+00	 1.70603e+00	-2.65057e-03	-3.77230e-01	-5.08919e-02	 1.20000e-05	 4.10000e+01 
1.00000e-01	 1.20066e-02	 3.63886e+00	 1.70598e+00	-3.27642e-03	-3.78880e-01	-5.25374e-02	 2.30000e-05	 4.20000e+01 
1.00000e-01	-4.77572e-04	 3.62408e+00	 1.67838e+00	 2.82039e-04	-3.92898e-01	-3.21573e-02	 1.00000e-06	 5.00000e+01 
1.00000e-01	-4.82590e-04	 3.62409e+00	 1.67843e+00	-4.75080e-04	-3.94130e-01	-3.18720e-02	 1.20000e-05	 5.10000e+01 
1.00000e-01	-4.73694e-04	 3.62434e+00	 1.67850e+00	-1.71844e-03	-3.98103e-01	-3.25221e-02	 2.30000e-05	 5.20000e+01 
1.00000e-01	 1.20222e-03	 3.62473e+00	 1.67797e+00	 1.42624e-04	-3.89540e-01	-3.08798e-02	 1.00000e-06	 6.00000e+01 
1.00000e-01	 1.19152e-03	 3.62470e+00	 1.67802e+00	 2.17733e-03	-3.92050e-01	-3.29653e-02	 1.20000e-05	 6.10000e+01 
1.00000e-01	 1.19737e-03	 3.62494e+00	 1.67808e+00	 1.75235e-03	-3.95495e-01	-3.38121e-02	 2.30000e-05	 6.20000e+01 
1.00000e-01	-1.96293e-03	 3.62741e+00	 1.67812e+00	-4.57972e-03	-3.97788e-01	-3.72588e-02	 1.00000e-06	 7.00000e+01 
1.00000e-01	-1.96241e-03	 3.62763e+00	 1.67818e+00	-4.25914e-03	-3.98716e-01	-3.77264e-02	 1.20000e-05	 7.10000e+01 
1.00000e-01	-1.92048e-03	 3.62756e+00	 1.67811e+00	-3.78538e-03	-3.99870e-01	-3.85099e-02	 2.30000e-05	 7.20000e+01 
1.00000e-01	 3.27038e-04	 3.62122e+00	 1.68012e+00	-1.19560e-03	-4.03186e-01	-2.21734e-02	 1.00000e-06	 8.00000e+01 
1.00000e-01	 3.34550e-04	 3.62133e+00	 1.68021e+00	-9.96489e-04	-4.03510e-01	-2.41327e-02	 1.20000e-05	 8.10000e+01 
1.00000e-01	 3.32140e-04	 3.62172e+00	 1.68027e+00	-9.49502e-04	-4.06454e-01	-2.62673e-02	 2.30000e-05	 8.20000e+01 
1.00000e-01	 2.23947e-02	 3.63039e+00	 1.67985e+00	 1.91477e-02	-3.58804e-01	-2.98664e-02	 1.00000e-06	 9.00000e+01 
1.00000e-01	 2.24215e-02	 3.63031e+00	 1.67986e+00	 1.92779e-02	-3.58889e-01	-2.98942e-02	 1.20000e-05	 9.10000e+01 
1.00000e-01	 2.23247e-02	 3.63071e+00	 1.67989e+00	 1.69050e-02	-3.61375e-01	-3.11871e-02	 2.30000e-05	 9.20000e+01 
1.00000e-01	 2.59135e-02	 3.62865e+00	 1.68126e+00	 2.49832e-02	-3.44451e-01	-2.06648e-02	 1.00000e-06	 1.00000e+02 
1.00000e-01	 2.58819e-02	 3.62872e+00	 1.68127e+00	 2.46508e-02	-3.44629e-01	-2.09037e-02	 1.20000e-05	 1.01000e+02 
1.00000e-01	 2.58150e-02	 3.62911e+00	 1.68131e+00	 2.23853e-02	-3.46191e-01	-2.18845e-02	 2.30000e-05	 1.02000e+02 
1.00000e-01	 2.85796e-02	 3.62866e+00	 1.69266e+00	 1.58480e-02	-3.56607e-01	-1.56427e-02	 1.00000e-06	 1.10000e+02 
1.00000e-01	 2.85047e-02	 3.62898e+00	 1.69272e+00	 1.40122e-02	-3.58260e-01	-1.61521e-02	 1.20000e-05	 1.11000e+02 
1.00000e-01	 2.84380e-02	 3.62935e+00	 1.69270e+00	 1.23080e-02	-3.57449e-01	-1.70490e-02	 2.30000e-05	 1.12000e+02 
1.00000e-01	 2.99683e-02	 3.63190e+00	 1.69213e+00	 9.87848e-03	-3.47862e-01	-1.73991e-02	 1.00000e-06	 1.20000e+02 
1.00000e-01	 2.99420e-02	 3.63197e+00	 1.69217e+00	 9.66026e-03	-3.47602e-01	-1.83251e-02	 1.20000e-05	 1.21000e+02 
1.00000e-01	 2.98951e-02	 3.63217e+00	 1.69216e+00	 9.00595e-03	-3.47041e-01	-2.06048e-02	 2.30000e-05	 1.22000e+02 
1.00000e-01	 1.79186e-02	 3.62263e+00	 1.69064e+00	 1.74873e-02	-4.01015e-01	-1.34016e-02	 1.00000e-06	 1.30000e+02 
1.00000e-01	 1.78585e-02	 3.62278e+00	 1.69067e+00	 1.70645e-02	-4.01506e-01	-1.37815e-02	 1.20000e-05	 1.31000e+02 
1.00000e-01	 1.77711e-02	 3.62320e+00	 1.69064e+00	 1.55907e-02	-4.03475e-01	-1.58777e-02	 2.30000e-05	 1.32000e+02 
1.00000e-01	 1.93007e-02	 3.62323e+00	 1.69119e+00	 1.72409e-02	-3.97045e-01	-1.02214e-02	 1.00000e-06	 1.40000e+02 
1.00000e-01	 1.92628e-02	 3.62340e+00	 1.69126e+00	 1.69813e-02	-3.97522e-01	-1.13465e-02	 1.20000e-05	 1.41000e+02 
1.00000e-01	 1.91674e-02	 3.62381e+00	 1.69124e+00	 1.52737e-02	-4.00544e-01	-1.54793e-02	 2.30000e-05	 1.42000e+02 
1.00000e-01	 1.95690e-02	 3.62402e+00	 1.69241e+00	 1.61684e-02	-3.95445e-01	-1.31750e-02	 1.00000e-06	 1.50000e+02 
1.00000e-01	 1.95251e-02	 3.62417e+00	 1.69244e+00	 1.56781e-02	-3.96181e-01	-1.43259e-02	 1.20000e-05	 1.51000e+02 
1.00000e-01	 1.94129e-02	 3.62467e+00	 1.69243e+00	 1.49205e-02	-3.98207e-01	-1.69313e-02	 2.30000e-05	 1.52000e+02 
1.00000e-01	 1.84480e-02	 3.62447e+00	 1.69334e+00	 1.45343e-02	-3.98707e-01	-1.42240e-02	 1.00000e-06	 1.60000e+02 
1.00000e-01	 1.84263e-02	 3.62465e+00	 1.69337e+00	 1.47613e-02	-3.98559e-01	-1.56223e-02	 1.20000e-05	 1.61000e+02 
1.00000e-01	 1.83279e-02	 3.62505e+00	 1.69336e+00	 1.34309e-02	-3.99956e-01	-1.81093e-02	 2.30000e-05	 1.62000e+02 
1.00000e-01	 7.02697e-03	 3.63026e+00	 1.70116e+00	 2.30212e-03	-4.05643e-01	-3.59752e-02	 1.00000e-06	 1.70000e+02 
1.00000e-01	 7.05137e-03	 3.63030e+00	 1.70126e+00	 2.14321e-03	-4.05895e-01	-3.62058e-02	 1.20000e-05	 1.71000e+02 
1.00000e-01	 6.99870e-03	 3.63083e+00	 1.70124e+00	 9.78535e-04	-4.09993e-01	-3.85623e-02	 2.30000e-05	 1.72000e+02 
1.00000e-01	 6.94463e-03	 3.62787e+00	 1.69925e+00	 3.53259e-03	-4.13847e-01	-2.89776e-02	 1.00000e-06	 1.80000e+02 
1.00000e-01	 6.93292e-03	 3.62812e+00	 1.69933e+00	 3.35418e-03	-4.13828e-01	-3.01266e-02	 1.20000e-05	 1.81000e+02 
1.00000e-01	 6.90827e-03	 3.62859e+00	 1.69933e+00	 2.87419e-03	-4.15112e-01	-3.27672e-02	 2.30000e-05	 1.82000e+02 
1.00000e-01	-1.11529e-02	 3.62422e+00	 1.69642e+00	-6.19355e-03	-4.22859e-01	-1.98586e-02	 1.00000e-06	 1.90000e+02 
1.00000e-01	-1.11263e-02	 3.62438e+00	 1.69646e+00	-6.12389e-03	-4.23160e-01	-2.09461e-02	 1.20000e-05	 1.91000e+02 
1.00000e-01	-1.10589e-02	 3.62492e+00	 1.69644e+00	-6.23457e-03	-4.23933e-01	-2.34058e-02	 2.30000e-05	 1.92000e+02 
1.00000e-01	-1.07875e-02	 3.62570e+00	 1.69782e+00	-4.99339e-03	-4.20780e-01	-2.31103e-02	 1.00000e-06	 2.00000e+02 
1.00000e-01	-1.07484e-02	 3.62587e+00	 1.69785e+00	-5.27288e-03	-4.21442e-01	-2.42324e-02	 1.20000e-05	 2.01000e+02 
1.00000e-01	-1.06892e-02	 3.62634e+00	 1.69783e+00	-5.02709e-03	-4.22381e-01	-2.60524e-02	 2.30000e-05	 2.02000e+02 
1.00000e-01	 2.20077e-03	 3.62510e+00	 1.69673e+00	 1.78222e-03	-4.26531e-01	-2.16192e-02	 1.00000e-06	 2.10000e+02 
1.00000e-01	 2.20089e-03	 3.62525e+00	 1.69678e+00	 2.24304e-03	-4.26609e-01	-2.23098e-02	 1.20000e-05	 2.11000e+02 
1.00000e-01	 2.18682e-03	 3.62569e+00	 1.69676e+00	 2.14909e-03	-4.27890e-01	-2.62501e-02	 2.30000e-05	 2.12000e+02 
1.00000e-01	 3.31373e-03	 3.62593e+00	 1.69762e+00	 2.28314e-03	-4.23798e-01	-2.39830e-02	 1.00000e-06	 2.20000e+02 
1.00000e-01	 3.31527e-03	 3.62616e+00	 1.69768e+00	 2.72041e-03	-4.24300e-01	-2.62035e-02	 1.20000e-05	 2.21000e+02 
1.00000e-01	 3.30869e-03	 3.62664e+00	 1.69769e+00	 2.08886e-03	-4.24860e-01	-2.88800e-02	 2.30000e-05	 2.22000e+02 
1.00000e-01	 2.84703e-02	 3.62846e+00	 1.68327e+00	 2.39222e-02	-3.39938e-01	-1.65500e-02	 1.00000e-06	 2.30000e+02 
1.00000e-01	 2.84428e-02	 3.62849e+00	 1.68329e+00	 2.20231e-02	-3.42510e-01	-1.69415e-02	 1.20000e-05	 2.31000e+02 
1.00000e-01	 2.83707e-02	 3.62889e+00	 1.68333e+00	 2.02686e-02	-3.44568e-01	-1.81064e-02	 2.30000e-05	 2.32000e+02 
1.00000e-01	 2.71935e-02	 3.62595e+00	 1.68377e+00	 2.50951e-02	-3.47218e-01	-1.49114e-02	 1.00000e-06	 2.40000e+02 
1.00000e-01	 2.71735e-02	 3.62600e+00	 1.68381e+00	 2.54565e-02	-3.48577e-01	-1.51317e-02	 1.20000e-05	 2.41000e+02 
1.00000e-01	 2.70422e-02	 3.62641e+00	 1.68381e+00	 2.37973e-02	-3.50699e-01	-1.64772e-02	 2.30000e-05	 2.42000e+02 
1.00000e-01	 2.30762e-02	 3.62483e+00	 1.69159e+00	 1.96712e-02	-3.83112e-01	-1.30563e-02	 1.00000e-06	 2.50000e+02 
1.00000e-01	 2.30265e-02	 3.62497e+00	 1.69163e+00	 1.92707e-02	-3.83070e-01	-1.40062e-02	 1.20000e-05	 2.51000e+02 
1.00000e-01	 2.29170e-02	 3.62538e+00	 1.69161e+00	 1.75586e-02	-3.84734e-01	-1.70689e-02	 2.30000e-05	 2.52000e+02 
1.00000e-01	-1.03283e-02	 3.61975e+00	 1.68964e+00	-1.32365e-02	-4.28737e-01	-8.92377e-03	 1.00000e-06	 2.60000e+02 
1.00000e-01	-1.02705e-02	 3.61993e+00	 1.68966e+00	-1.22164e-02	-4.30209e-01	-1.08028e-02	 1.20000e-05	 2.61000e+02 
1.00000e-01	-1.02166e-02	 3.62043e+00	 1.68961e+00	-1.11446e-02	-4.32534e-01	-1.43131e-02	 2.30000e-05	 2.62000e+02 
1.00000e-01	 1.40099e-03	 3.62092e+00	 1.69110e+00	 1.80758e-03	-4.31289e-01	-1.39609e-02	 1.00000e-06	 2.70000e+02 
1.00000e-01	 1.41229e-03	 3.62107e+00	 1.69114e+00	 1.66682e-03	-4.31910e-01	-1.51086e-02	 1.20000e-05	 2.71000e+02 
1.00000e-01	 1.39446e-03	 3.62155e+00	 1.69113e+00	 1.36136e-03	-4.33912e-01	-1.84964e-02	 2.30000e-05	 2.72000e+02 
1.00000e-01	 3.13838e-03	 3.62209e+00	 1.69287e+00	 1.98893e-03	-4.30255e-01	-1.65429e-02	 1.00000e-06	 2.80000e+02 
1.00000e-01	 3.13555e-03	 3.62229e+00	 1.69291e+00	 2.29629e-03	-4.30708e-01	-1.74584e-02	 1.20000e-05	 2.81000e+02 
1.00000e-01	 3.11351e-03	 3.62279e+00	 1.69288e+00	 2.60456e-03	-4.31969e-01	-1.99300e-02	 2.30000e-05	 2.82000e+02 
1.00000e-01	-1.95051e-02	 3.62288e+00	 1.69474e+00	-1.41121e-02	-4.09892e-01	-1.08936e-02	 1.00000e-06	 2.90000e+02 
1.00000e-01	-1.94540e-02	 3.62313e+00	 1.69477e+00	-1.35444e-02	-4.10384e-01	-1.20021e-02	 1.20000e-05	 2.91000e+02 
1.00000e-01	-1.93581e-02	 3.62363e+00	 1.69474e+00	-1.21326e-02	-4.12194e-01	-1.52809e-02	 2.30000e-05	 2.92000e+02 
1.00000e-01	-1.69090e-02	 3.62273e+00	 1.69462e+00	-1.30344e-02	-4.17287e-01	-1.36471e-02	 1.00000e-06	 3.00000e+02 
1.00000e-01	-1.68713e-02	 3.62291e+00	 1.69464e+00	-1.27242e-02	-4.17754e-01	-1.46892e-02	 1.20000e-05	 3.01000e+02 
1.00000e-01	-1.67718e-02	 3.62346e+00	 1.69461e+00	-1.15801e-02	-4.19047e-01	-1.74653e-02	 2.30000e-05	 3.02000e+02 
1.00000e-01	-1.44855e-02	 3.62630e+00	 1.69847e+00	-6.32936e-03	-4.13562e-01	-2.24144e-02	 1.00000e-06	 3.10000e+02 
1.00000e-01	-1.44576e-02	 3.62656e+00	 1.69857e+00	-6.03900e-03	-4.13773e-01	-2.33524e-02	 1.20000e-05	 3.11000e+02 
1.00000e-01	-1.44007e-02	 3.62703e+00	 1.69856e+00	-5.74421e-03	-4.14889e-01	-2.57339e-02	 2.30000e-05	 3.12000e+02 
1.00000e-01	-1.53093e-02	 3.62945e+00	 1.70120e+00	-3.91074e-03	-4.01770e-01	-2.92429e-02	 1.00000e-06	 3.20000e+02 
1.00000e-01	-1.52848e-02	 3.62961e+00	 1.70125e+00	-3.75983e-03	-4.01632e-01	-3.01023e-02	 1.20000e-05	 3.21000e+02 
1.00000e-01	-1.52021e-02	 3.63007e+00	 1.70125e+00	-3.25923e-03	-4.02285e-01	-3.28229e-02	 2.30000e-05	 3.22000e+02 
1.00000e-01	 6.38371e-03	 3.62214e+00	 1.67920e+00	 1.05009e-02	-3.91998e-01	-2.58305e-02	 1.00000e-06	 3.30000e+02 
1.00000e-01	 6.37497e-03	 3.62219e+00	 1.67931e+00	 1.01034e-02	-3.93132e-01	-2.57437e-02	 1.20000e-05	 3.31000e+02 
1.00000e-01	 6.33653e-03	 3.62257e+00	 1.67937e+00	 9.21206e-03	-3.94626e-01	-2.70964e-02	 2.30000e-05	 3.32000e+02 
1.00000e-01	 5.04484e-03	 3.62194e+00	 1.67954e+00	 7.98014e-03	-3.97600e-01	-2.47885e-02	 1.00000e-06	 3.40000e+02 
1.00000e-01	 5.02801e-03	 3.62203e+00	 1.67964e+00	 7.85175e-03	-3.98608e-01	-2.54642e-02	 1.20000e-05	 3.41000e+02 
1.00000e-01	 4.99131e-03	 3.62241e+00	 1.67969e+00	 7.50411e-03	-4.00622e-01	-2.77343e-02	 2.30000e-05	 3.42000e+02 
1.00000e-01	 3.00475e-03	 3.62745e+00	 1.69904e+00	 9.96671e-04	-4.22110e-01	-3.17392e-02	 1.00000e-06	 3.50000e+02 
1.00000e-01	 2.99529e-03	 3.62765e+00	 1.69911e+00	 1.17690e-03	-4.22146e-01	-3.23837e-02	 1.20000e-05	 3.51000e+02 
1.00000e-01	 2.97336e-03	 3.62816e+00	 1.69915e+00	 1.98703e-03	-4.22961e-01	-3.43833e-02	 2.30000e-05	 3.52000e+02 
1.00000e-01	 4.30450e-03	 3.63039e+00	 1.70140e+00	 1.02629e-03	-4.10224e-01	-3.68471e-02	 1.00000e-06	 3.60000e+02 
1.00000e-01	 4.33616e-03	 3.63062e+00	 1.70151e+00	 1.01330e-03	-4.09267e-01	-3.77431e-02	 1.20000e-05	 3.61000e+02 
1.00000e-01	 4.31345e-03	 3.63102e+00	 1.70149e+00	 1.11801e-03	-4.09382e-01	-3.89725e-02	 2.30000e-05	 3.62000e+02 
1.00000e-01	-9.69506e-03	 3.63232e+00	 1.70305e+00	-4.84286e-04	-4.03220e-01	-3.93644e-02	 1.00000e-06	 3.70000e+02 
1.00000e-01	-9.68450e-03	 3.63256e+00	 1.70318e+00	-2.03504e-04	-4.02868e-01	-4.05624e-02	 1.20000e-05	 3.71000e+02 
1.00000e-01	-9.65075e-03	 3.63291e+00	 1.70316e+00	-1.96851e-04	-4.03486e-01	-4.23549e-02	 2.30000e-05	 3.72000e+02 
1.00000e-01	-8.14226e-03	 3.63170e+00	 1.70262e+00	-1.75241e-03	-4.05416e-01	-3.74848e-02	 1.00000e-06	 3.80000e+02 
1.00000e-01	-8.12005e-03	 3.63195e+00	 1.70275e+00	-1.30525e-03	-4.04905e-01	-3.85888e-02	 1.20000e-05	 3.81000e+02 
1.00000e-01	-8.10991e-03	 3.63227e+00	 1.70268e+00	-4.84233e-04	-4.05253e-01	-4.11854e-02	 2.30000e-05	 3.82000e+02 
1.00000e-01	 2.86549e-02	 3.63210e+00	 1.69663e+00	 5.86850e-03	-3.46299e-01	-1.91032e-02	 1.00000e-06	 3.90000e+02 
1.00000e-01	 2.85807e-02	 3.63216e+00	 1.69666e+00	 5.84457e-03	-3.48243e-01	-2.00725e-02	 1.20000e-05	 3.91000e+02 
1.00000e-01	 2.85069e-02	 3.63252e+00	 1.69666e+00	 4.99338e-03	-3.51801e-01	-2.27414e-02	 2.30000e-05	 3.92000e+02 
1.00000e-01	 2.98166e-02	 3.63256e+00	 1.69510e+00	 6.83112e-03	-3.39115e-01	-2.04015e-02	 1.00000e-06	 4.00000e+02 
1.00000e-01	 2.97725e-02	 3.63261e+00	 1.69511e+00	 6.83830e-03	-3.40133e-01	-2.10792e-02	 1.20000e-05	 4.01000e+02 
1.00000e-01	 2.97104e-02	 3.63285e+00	 1.69509e+00	 6.85630e-03	-3.42738e-01	-2.27851e-02	 2.30000e-05	 4.02000e+02 
1.00000e-01	 5.30157e-03	 3.62118e+00	 1.68063e+00	 7.86315e-03	-4.01944e-01	-2.28729e-02	 1.00000e-06	 4.10000e+02 
1.00000e-01	 5.26378e-03	 3.62135e+00	 1.68069e+00	 8.20897e-03	-4.03326e-01	-2.47275e-02	 1.20000e-05	 4.11000e+02 
1.00000e-01	 5.22499e-03	 3.62173e+00	 1.68074e+00	 7.84972e-03	-4.05488e-01	-2.65535e-02	 2.30000e-05	 4.12000e+02 
1.00000e-01	 7.63786e-03	 3.62071e+00	 1.68203e+00	 1.16667e-02	-4.03236e-01	-1.86929e-02	 1.00000e-06	 4.20000e+02 
1.00000e-01	 7.62164e-03	 3.62084e+00	 1.68207e+00	 1.14203e-02	-4.04092e-01	-1.97771e-02	 1.20000e-05	 4.21000e+02 
1.00000e-01	 7.56228e-03	 3.62124e+00	 1.68211e+00	 1.05641e-02	-4.06533e-01	-2.26931e-02	 2.30000e-05	 4.22000e+02 
1.00000e-01	-1.77553e-02	 3.61901e+00	 1.68752e+00	-2.35557e-02	-4.14057e-01	-4.49102e-03	 1.00000e-06	 4.30000e+02 
1.00000e-01	-1.76729e-02	 3.61933e+00	 1.68753e+00	-2.30068e-02	-4.14919e-01	-6.44525e-03	 1.20000e-05	 4.31000e+02 
1.00000e-01	-1.75668e-02	 3.61985e+00	 1.68749e+00	-2.13844e-02	-4.17465e-01	-1.01987e-02	 2.30000e-05	 4.32000e+02 
1.00000e-01	-1.54162e-02	 3.61920e+00	 1.68821e+00	-1.97251e-02	-4.20573e-01	-6.88366e-03	 1.00000e-06	 4.40000e+02 
1.00000e-01	-1.53633e-02	 3.61939e+00	 1.68824e+00	-1.94514e-02	-4.20847e-01	-7.54240e-03	 1.20000e-05	 4.41000e+02 
1.00000e-01	-1.52739e-02	 3.61988e+00	 1.68821e+00	-1.78814e-02	-4.23353e-01	-1.13901e-02	 2.30000e-05	 4.42000e+02 
1.00000e-01	-2.19089e-02	 3.64079e+00	 1.70793e+00	 7.03241e-03	-3.44810e-01	-4.46072e-02	 1.00000e-06	 4.50000e+02 
1.00000e-01	-2.18721e-02	 3.64085e+00	 1.70795e+00	 7.43351e-03	-3.44358e-01	-4.49334e-02	 1.20000e-05	 4.51000e+02 
1.00000e-01	-2.18534e-02	 3.64108e+00	 1.70795e+00	 8.76913e-03	-3.43335e-01	-4.62694e-02	 2.30000e-05	 4.52000e+02 
1.00000e-01	-2.02780e-02	 3.63965e+00	 1.70730e+00	 5.70735e-03	-3.53150e-01	-4.44084e-02	 1.00000e-06	 4.60000e+02 
1.00000e-01	-2.02853e-02	 3.63963e+00	 1.70732e+00	 5.74400e-03	-3.52920e-01	-4.45392e-02	 1.20000e-05	 4.61000e+02 
1.00000e-01	-2.02764e-02	 3.63974e+00	 1.70729e+00	 6.03701e-03	-3.53513e-01	-4.55004e-02	 2.30000e-05	 4.62000e+02 
1.00000e-01	 8.60700e-03	 3.62299e+00	 1.69361e+00	 7.85423e-03	-4.23983e-01	-1.63184e-02	 1.00000e-06	 4.70000e+02 
1.00000e-01	 8.58730e-03	 3.62319e+00	 1.69366e+00	 7.92274e-03	-4.24627e-01	-1.79460e-02	 1.20000e-05	 4.71000e+02 
1.00000e-01	 8.53841e-03	 3.62367e+00	 1.69362e+00	 7.13359e-03	-4.26119e-01	-2.05625e-02	 2.30000e-05	 4.72000e+02 
1.00000e-01	 1.03119e-02	 3.62209e+00	 1.69180e+00	 1.15301e-02	-4.18482e-01	-1.40169e-02	 1.00000e-06	 4.80000e+02 
1.00000e-01	 1.02720e-02	 3.62232e+00	 1.69184e+00	 1.11274e-02	-4.19987e-01	-1.53511e-02	 1.20000e-05	 4.81000e+02 
1.00000e-01	 1.02098e-02	 3.62276e+00	 1.69181e+00	 9.78513e-03	-4.23463e-01	-1.94588e-02	 2.30000e-05	 4.82000e+02 
1.00000e-01	 1.48193e-02	 3.64052e+00	 1.70683e+00	-3.50136e-03	-3.65834e-01	-5.36538e-02	 1.00000e-06	 4.90000e+02 
1.00000e-01	 1.48620e-02	 3.64056e+00	 1.70692e+00	-3.76541e-03	-3.64975e-01	-5.36863e-02	 1.20000e-05	 4.91000e+02 
1.00000e-01	 1.49587e-02	 3.64042e+00	 1.70689e+00	-4.24799e-03	-3.64125e-01	-5.39995e-02	 2.30000e-05	 4.92000e+02 
1.00000e-01	 1.62412e-02	 3.63476e+00	 1.70358e+00	 1.56117e-03	-3.77047e-01	-3.85936e-02	 1.00000e-06	 5.00000e+02 
1.00000e-01	 1.62265e-02	 3.63498e+00	 1.70366e+00	 1.09967e-03	-3.76029e-01	-4.15534e-02	 1.20000e-05	 5.01000e+02 
1.00000e-01	 1.61883e-02	 3.63526e+00	 1.70362e+00	 5.23955e-04	-3.76516e-01	-4.26159e-02	 2.30000e-05	 5.02000e+02 
1.00000e-01	-1.93539e-02	 3.63553e+00	 1.70520e+00	 1.87353e-03	-3.70503e-01	-3.78256e-02	 1.00000e-06	 5.10000e+02 
1.00000e-01	-1.93263e-02	 3.63565e+00	 1.70526e+00	 2.00427e-03	-3.70665e-01	-3.83181e-02	 1.20000e-05	 5.11000e+02 
1.00000e-01	-1.92550e-02	 3.63592e+00	 1.70519e+00	 2.43059e-03	-3.72335e-01	-4.09680e-02	 2.30000e-05	 5.12000e+02 
1.00000e-01	-1.69943e-02	 3.63812e+00	 1.70642e+00	 2.87763e-03	-3.71012e-01	-4.59418e-02	 1.00000e-06	 5.20000e+02 
1.00000e-01	-1.69751e-02	 3.63827e+00	 1.70652e+00	 2.94930e-03	-3.70730e-01	-4.65442e-02	 1.20000e-05	 5.21000e+02 
1.00000e-01	-1.69533e-02	 3.63847e+00	 1.70646e+00	 3.71452e-03	-3.70824e-01	-4.81836e-02	 2.30000e-05	 5.22000e+02 
1.00000e-01	-2.37067e-02	 3.63132e+00	 1.70186e+00	-2.68767e-03	-3.72441e-01	-2.50895e-02	 1.00000e-06	 5.30000e+02 
1.00000e-01	-2.36801e-02	 3.63140e+00	 1.70189e+00	-2.89559e-03	-3.73890e-01	-2.66307e-02	 1.20000e-05	 5.31000e+02 
1.00000e-01	-2.35982e-02	 3.63180e+00	 1.70188e+00	-2.40145e-03	-3.74601e-01	-2.82970e-02	 2.30000e-05	 5.32000e+02 
1.00000e-01	-2.21069e-02	 3.62791e+00	 1.69927e+00	-8.19015e-03	-3.88241e-01	-2.18239e-02	 1.00000e-06	 5.40000e+02 
1.00000e-01	-2.20725e-02	 3.62807e+00	 1.69930e+00	-7.60682e-03	-3.88633e-01	-2.13170e-02	 1.20000e-05	 5.41000e+02 
1.00000e-01	-2.20059e-02	 3.62848e+00	 1.69926e+00	-6.41463e-03	-3.90401e-01	-2.25553e-02	 2.30000e-05	 5.42000e+02 
1.00000e-01	-1.92765e-02	 3.61932e+00	 1.68780e+00	-2.55569e-02	-4.08537e-01	-4.70401e-03	 1.00000e-06	 5.50000e+02 
1.00000e-01	-1.92209e-02	 3.61950e+00	 1.68782e+00	-2.42125e-02	-4.10462e-01	-6.78015e-03	 1.20000e-05	 5.51000e+02 
1.00000e-01	-1.91017e-02	 3.62000e+00	 1.68778e+00	-2.25486e-02	-4.11991e-01	-9.36052e-03	 2.30000e-05	 5.52000e+02 
1.00000e-01	-2.02542e-02	 3.61977e+00	 1.68885e+00	-2.48731e-02	-4.07433e-01	-3.82003e-03	 1.00000e-06	 5.60000e+02 
1.00000e-01	-2.02092e-02	 3.61990e+00	 1.68886e+00	-2.33366e-02	-4.09689e-01	-7.32156e-03	 1.20000e-05	 5.61000e+02 
1.00000e-01	-2.01046e-02	 3.62040e+00	 1.68879e+00	-2.14732e-02	-4.12538e-01	-9.91306e-03	 2.30000e-05	 5.62000e+02 
1.00000e-01	-5.16219e-03	 3.63177e+00	 1.70266e+00	-2.77902e-03	-4.13138e-01	-3.91206e-02	 1.00000e-06	 5.70000e+02 
1.00000e-01	-5.17787e-03	 3.63201e+00	 1.70279e+00	-2.73561e-03	-4.11639e-01	-3.99872e-02	 1.20000e-05	 5.71000e+02 
1.00000e-01	-5.17252e-03	 3.63249e+00	 1.70281e+00	-1.93451e-03	-4.10997e-01	-4.26963e-02	 2.30000e-05	 5.72000e+02 
1.00000e-01	-2.98844e-03	 3.63490e+00	 1.70423e+00	-1.45756e-04	-4.02449e-01	-4.78224e-02	 1.00000e-06	 5.80000e+02 
1.00000e-01	-3.00651e-03	 3.63498e+00	 1.70428e+00	-2.82523e-04	-4.02212e-01	-4.82960e-02	 1.20000e-05	 5.81000e+02 
1.00000e-01	-2.98671e-03	 3.63517e+00	 1.70422e+00	-6.78842e-04	-4.01893e-01	-4.95607e-02	 2.30000e-05	 5.82000e+02 
1.00000e-01	 2.75605e-02	 3.62579e+00	 1.68716e+00	 2.22440e-02	-3.57116e-01	-1.31708e-02	 1.00000e-06	 5.90000e+02 
1.00000e-01	 2.75241e-02	 3.62597e+00	 1.68721e+00	 2.17937e-02	-3.57774e-01	-1.38420e-02	 1.20000e-05	 5.91000e+02 
1.00000e-01	 2.74297e-02	 3.62633e+00	 1.68720e+00	 2.00895e-02	-3.60283e-01	-1.51479e-02	 2.30000e-05	 5.92000e+02 
1.00000e-01	 2.52682e-02	 3.62406e+00	 1.68601e+00	 2.66561e-02	-3.65397e-01	-8.76616e-03	 1.00000e-06	 6.00000e+02 
1.00000e-01	 2.52112e-02	 3.62422e+00	 1.68605e+00	 2.61762e-02	-3.65173e-01	-1.01517e-02	 1.20000e-05	 6.01000e+02 
1.00000e-01	 2.50941e-02	 3.62462e+00	 1.68605e+00	 2.43021e-02	-3.67406e-01	-1.33400e-02	 2.30000e-05	 6.02000e+02 
1.00000e-01	 5.35194e-03	 3.62477e+00	 1.69610e+00	 4.10263e-03	-4.24301e-01	-2.06254e-02	 1.00000e-06	 6.10000e+02 
1.00000e-01	 5.34318e-03	 3.62490e+00	 1.69612e+00	 4.62078e-03	-4.24853e-01	-2.27418e-02	 1.20000e-05	 6.11000e+02 
1.00000e-01	 5.30774e-03	 3.62538e+00	 1.69612e+00	 4.45212e-03	-4.25284e-01	-2.56337e-02	 2.30000e-05	 6.12000e+02 
1.00000e-01	 5.81244e-03	 3.62258e+00	 1.69321e+00	 6.70778e-03	-4.28430e-01	-1.74010e-02	 1.00000e-06	 6.20000e+02 
1.00000e-01	 5.80045e-03	 3.62271e+00	 1.69324e+00	 6.12808e-03	-4.28461e-01	-1.72793e-02	 1.20000e-05	 6.21000e+02 
1.00000e-01	 5.76766e-03	 3.62317e+00	 1.69322e+00	 4.98111e-03	-4.29085e-01	-1.99993e-02	 2.30000e-05	 6.22000e+02 
1.00000e-01	-1.27912e-02	 3.63276e+00	 1.70314e+00	-1.47592e-03	-3.96158e-01	-3.86067e-02	 1.00000e-06	 6.30000e+02 
1.00000e-01	-1.27423e-02	 3.63291e+00	 1.70318e+00	-1.39078e-03	-3.95855e-01	-3.97236e-02	 1.20000e-05	 6.31000e+02 
1.00000e-01	-1.27043e-02	 3.63332e+00	 1.70320e+00	-1.21852e-03	-3.96221e-01	-4.20009e-02	 2.30000e-05	 6.32000e+02 
1.00000e-01	-1.43451e-02	 3.62811e+00	 1.70006e+00	-5.71305e-03	-4.09952e-01	-2.60335e-02	 1.00000e-06	 6.40000e+02 
1.00000e-01	-1.42917e-02	 3.62827e+00	 1.70010e+00	-5.01811e-03	-4.08728e-01	-2.71096e-02	 1.20000e-05	 6.41000e+02 
1.00000e-01	-1.42382e-02	 3.62877e+00	 1.70012e+00	-4.04655e-03	-4.09796e-01	-3.05472e-02	 2.30000e-05	 6.42000e+02 
1.00000e-01	 1.15095e-02	 3.63113e+00	 1.70149e+00	 3.20449e-03	-4.00233e-01	-3.53015e-02	 1.00000e-06	 6.50000e+02 
1.00000e-01	 1.15014e-02	 3.63123e+00	 1.70156e+00	 3.21776e-03	-4.00097e-01	-3.57368e-02	 1.20000e-05	 6.51000e+02 
1.00000e-01	 1.14531e-02	 3.63159e+00	 1.70157e+00	 2.79093e-03	-4.00585e-01	-3.70353e-02	 2.30000e-05	 6.52000e+02 
1.00000e-01	 1.40840e-02	 3.63119e+00	 1.70145e+00	 4.01221e-03	-3.94157e-01	-3.26260e-02	 1.00000e-06	 6.60000e+02 
1.00000e-01	 1.40161e-02	 3.63163e+00	 1.70158e+00	 2.39324e-03	-3.93252e-01	-3.48009e-02	 1.20000e-05	 6.61000e+02 
1.00000e-01	 1.39733e-02	 3.63203e+00	 1.70161e+00	 1.53780e-03	-3.92847e-01	-3.64148e-02	 2.30000e-05	 6.62000e+02 
1.00000e-01	 4.26217e-03	 3.62836e+00	 1.69986e+00	 2.26402e-03	-4.13446e-01	-2.98140e-02	 1.00000e-06	 6.70000e+02 
1.00000e-01	 4.25984e-03	 3.62853e+00	 1.69991e+00	 1.54355e-03	-4.13736e-01	-3.16249e-02	 1.20000e-05	 6.71000e+02 
1.00000e-01	 4.23479e-03	 3.62898e+00	 1.69991e+00	 1.45483e-03	-4.16694e-01	-3.48301e-02	 2.30000e-05	 6.72000e+02 
1.00000e-01	-1.69906e-02	 3.62099e+00	 1.68112e+00	-2.87760e-02	-3.93752e-01	-1.61149e-02	 1.00000e-06	 6.80000e+02 
1.00000e-01	-1.69542e-02	 3.62107e+00	 1.68118e+00	-2.82386e-02	-3.95066e-01	-1.65366e-02	 1.20000e-05	 6.81000e+02 
1.00000e-01	-1.68337e-02	 3.62147e+00	 1.68120e+00	-2.66391e-02	-3.98299e-01	-1.85151e-02	 2.30000e-05	 6.82000e+02 
1.00000e-01	-1.87427e-02	 3.62266e+00	 1.68045e+00	-3.07940e-02	-3.82342e-01	-1.65945e-02	 1.00000e-06	 6.90000e+02 
1.00000e-01	-1.87274e-02	 3.62269e+00	 1.68050e+00	-3.03329e-02	-3.82942e-01	-1.74918e-02	 1.20000e-05	 6.91000e+02 
1.00000e-01	-1.85979e-02	 3.62309e+00	 1.68052e+00	-2.80452e-02	-3.86939e-01	-2.05152e-02	 2.30000e-05	 6.92000e+02 
1.00000e-01	 1.71683e-02	 3.62285e+00	 1.68054e+00	 2.48779e-02	-3.74788e-01	-2.24884e-02	 1.00000e-06	 7.00000e+02 
1.00000e-01	 1.71462e-02	 3.62294e+00	 1.68061e+00	 2.44373e-02	-3.77265e-01	-2.26140e-02	 1.20000e-05	 7.01000e+02 
1.00000e-01	 1.70395e-02	 3.62326e+00	 1.68068e+00	 2.15849e-02	-3.80838e-01	-2.27196e-02	 2.30000e-05	 7.02000e+02 
1.00000e-01	 1.54189e-02	 3.62377e+00	 1.67896e+00	 2.37122e-02	-3.71862e-01	-2.13441e-02	 1.00000e-06	 7.10000e+02 
1.00000e-01	 1.53577e-02	 3.62392e+00	 1.67910e+00	 2.03302e-02	-3.74305e-01	-2.42542e-02	 1.20000e-05	 7.11000e+02 
1.00000e-01	 1.52796e-02	 3.62435e+00	 1.67916e+00	 1.94540e-02	-3.78108e-01	-2.67971e-02	 2.30000e-05	 7.12000e+02 
1.00000e-01	 5.85283e-04	 3.62160e+00	 1.69224e+00	-1.24878e-04	-4.33520e-01	-1.59551e-02	 1.00000e-06	 7.20000e+02 
1.00000e-01	 5.84028e-04	 3.62173e+00	 1.69226e+00	 2.17638e-04	-4.33497e-01	-1.76299e-02	 1.20000e-05	 7.21000e+02 
1.00000e-01	 5.78571e-04	 3.62227e+00	 1.69226e+00	 3.23675e-04	-4.35100e-01	-2.14586e-02	 2.30000e-05	 7.22000e+02 
1.00000e-01	-2.08187e-03	 3.62107e+00	 1.69158e+00	-2.04739e-03	-4.34600e-01	-1.54869e-02	 1.00000e-06	 7.30000e+02 
1.00000e-01	-2.07259e-03	 3.62127e+00	 1.69162e+00	-1.86245e-03	-4.35095e-01	-1.65330e-02	 1.20000e-05	 7.31000e+02 
1.00000e-01	-2.06576e-03	 3.62174e+00	 1.69160e+00	-1.37575e-03	-4.36670e-01	-1.95760e-02	 2.30000e-05	 7.32000e+02 
1.00000e-01	 1.79117e-02	 3.62231e+00	 1.68155e+00	 2.59843e-02	-3.76405e-01	-1.93215e-02	 1.00000e-06	 7.40000e+02 
1.00000e-01	 1.78720e-02	 3.62246e+00	 1.68162e+00	 2.34736e-02	-3.80995e-01	-1.74129e-02	 1.20000e-05	 7.41000e+02 
1.00000e-01	 1.77638e-02	 3.62281e+00	 1.68164e+00	 2.21841e-02	-3.84097e-01	-1.93945e-02	 2.30000e-05	 7.42000e+02 
1.00000e-01	 2.00579e-02	 3.62229e+00	 1.68307e+00	 2.67005e-02	-3.78321e-01	-1.45954e-02	 1.00000e-06	 7.50000e+02 
1.00000e-01	 1.99923e-02	 3.62244e+00	 1.68314e+00	 2.64277e-02	-3.79514e-01	-1.50410e-02	 1.20000e-05	 7.51000e+02 
1.00000e-01	 1.98980e-02	 3.62278e+00	 1.68317e+00	 2.57031e-02	-3.81940e-01	-1.63033e-02	 2.30000e-05	 7.52000e+02 
1.00000e-01	-2.40276e-02	 3.62092e+00	 1.68306e+00	-3.56689e-02	-3.79173e-01	-8.14145e-03	 1.00000e-06	 7.60000e+02 
1.00000e-01	-2.39594e-02	 3.62108e+00	 1.68310e+00	-3.39563e-02	-3.81551e-01	-8.26646e-03	 1.20000e-05	 7.61000e+02 
1.00000e-01	-2.38222e-02	 3.62161e+00	 1.68307e+00	-3.15485e-02	-3.85688e-01	-1.10319e-02	 2.30000e-05	 7.62000e+02 
1.00000e-01	-2.12932e-02	 3.62990e+00	 1.68079e+00	-2.10842e-02	-3.90598e-01	-2.81924e-02	 1.00000e-06	 7.70000e+02 
1.00000e-01	-2.13112e-02	 3.62982e+00	 1.68082e+00	-2.05254e-02	-3.89871e-01	-2.83563e-02	 1.20000e-05	 7.71000e+02 
1.00000e-01	-2.12281e-02	 3.63038e+00	 1.68081e+00	-1.77644e-02	-3.86058e-01	-3.09987e-02	 2.30000e-05	 7.72000e+02 
1.00000e-01	 2.76481e-02	 3.63345e+00	 1.69878e+00	 3.36814e-03	-3.45619e-01	-2.18657e-02	 1.00000e-06	 7.80000e+02 
1.00000e-01	 2.76397e-02	 3.63352e+00	 1.69881e+00	 3.31050e-03	-3.44587e-01	-2.18515e-02	 1.20000e-05	 7.81000e+02 
1.00000e-01	 2.75240e-02	 3.63384e+00	 1.69883e+00	 2.89036e-03	-3.43620e-01	-2.37194e-02	 2.30000e-05	 7.82000e+02 
1.00000e-01	 2.51128e-02	 3.63156e+00	 1.69867e+00	 7.01299e-03	-3.59696e-01	-2.21320e-02	 1.00000e-06	 7.90000e+02 
1.00000e-01	 2.50721e-02	 3.63164e+00	 1.69871e+00	 6.89261e-03	-3.59046e-01	-2.21552e-02	 1.20000e-05	 7.91000e+02 
1.00000e-01	 2.49680e-02	 3.63199e+00	 1.69873e+00	 5.63493e-03	-3.60247e-01	-2.45745e-02	 2.30000e-05	 7.92000e+02 
1.00000e-01	 2.34432e-02	 3.63318e+00	 1.70084e+00	 1.97426e-03	-3.62798e-01	-2.98280e-02	 1.00000e-06	 8.00000e+02 
1.00000e-01	 2.34202e-02	 3.63326e+00	 1.70089e+00	 1.68066e-03	-3.62792e-01	-3.05177e-02	 1.20000e-05	 8.01000e+02 
1.00000e-01	 2.33173e-02	 3.63362e+00	 1.70092e+00	 1.24215e-03	-3.63270e-01	-3.19422e-02	 2.30000e-05	 8.02000e+02 
1.00000e-01	 2.31839e-02	 3.63672e+00	 1.70365e+00	-1.19426e-03	-3.53320e-01	-3.46526e-02	 1.00000e-06	 8.10000e+02 
1.00000e-01	 2.31537e-02	 3.63686e+00	 1.70372e+00	-1.37305e-03	-3.53108e-01	-3.51650e-02	 1.20000e-05	 8.11000e+02 
1.00000e-01	 2.30490e-02	 3.63719e+00	 1.70374e+00	-1.88587e-03	-3.52390e-01	-3.64799e-02	 2.30000e-05	 8.12000e+02 
1.00000e-01	 1.63978e-02	 3.62140e+00	 1.68758e+00	 2.04383e-02	-4.02416e-01	-1.07331e-02	 1.00000e-06	 8.20000e+02 
1.00000e-01	 1.63559e-02	 3.62152e+00	 1.68761e+00	 2.03853e-02	-4.02893e-01	-1.13804e-02	 1.20000e-05	 8.21000e+02 
1.00000e-01	 1.62683e-02	 3.62193e+00	 1.68758e+00	 1.89275e-02	-4.04951e-01	-1.40517e-02	 2.30000e-05	 8.22000e+02 
1.00000e-01	 1.55364e-02	 3.62094e+00	 1.68582e+00	 1.94002e-02	-4.00400e-01	-1.28791e-02	 1.00000e-06	 8.30000e+02 
1.00000e-01	 1.54804e-02	 3.62113e+00	 1.68587e+00	 1.92121e-02	-4.00993e-01	-1.36015e-02	 1.20000e-05	 8.31000e+02 
1.00000e-01	 1.54009e-02	 3.62151e+00	 1.68585e+00	 1.91609e-02	-4.02316e-01	-1.58039e-02	 2.30000e-05	 8.32000e+02 
1.00000e-01	-2.90624e-02	 3.62756e+00	 1.69002e+00	-1.60097e-02	-3.73596e-01	-1.46812e-02	 1.00000e-06	 8.40000e+02 
1.00000e-01	-2.90583e-02	 3.62759e+00	 1.69004e+00	-1.58531e-02	-3.73689e-01	-1.50502e-02	 1.20000e-05	 8.41000e+02 
1.00000e-01	-2.90018e-02	 3.62816e+00	 1.69002e+00	-1.48308e-02	-3.73955e-01	-1.66012e-02	 2.30000e-05	 8.42000e+02 